# Tetrahedron method
       -4.7488943704        0.0000000000
       -4.5175584859        0.0000000000
       -4.2862226015        0.0000000000
       -4.0548867171        0.0000000000
       -3.8235508327        0.0000000000
       -3.5922149483        0.0000000000
       -3.3608790639        0.0000000000
       -3.1295431794        0.0000000000
       -2.8982072950        0.0000000000
       -2.6668714106        0.0000000000
       -2.4355355262        0.0000000000
       -2.2041996418        0.0000000000
       -1.9728637573        0.0000000000
       -1.7415278729        0.0000000000
       -1.5101919885        0.0000000000
       -1.2788561041        0.0000000000
       -1.0475202197        0.0000000000
       -0.8161843352        0.0040015470
       -0.5848484508        0.0278075773
       -0.3535125664        0.0253882341
       -0.1221766820        0.0337079832
        0.1091592024        0.0461143750
        0.3404950868        0.0781698381
        0.5718309713        0.1760260746
        0.8031668557        0.3714908702
        1.0345027401        1.3468824232
        1.2658386245        2.4899602562
        1.4971745089        2.7895444448
        1.7285103934        3.5466334350
        1.9598462778        3.2334083204
        2.1911821622        4.6903444389
        2.4225180466        5.1896538517
        2.6538539310        3.9341343530
        2.8851898154        3.8655566572
        3.1165256999        3.6255695058
        3.3478615843        3.3375483757
        3.5791974687        3.6542062028
        3.8105333531        3.5394656264
        4.0418692375        3.4246165401
        4.2732051220        3.8529889586
        4.5045410064        3.3814305929
        4.7358768908        2.6849736807
        4.9672127752        2.4619226697
        5.1985486596        2.4332690325
        5.4298845440        3.0282242784
        5.6612204285        2.9201988268
        5.8925563129        3.9519480994
        6.1238921973        3.3372812603
        6.3552280817        3.6801985283
        6.5865639661        3.3047381088
        6.8178998506        3.4383530271
        7.0492357350        3.4721807410
        7.2805716194        3.8986570114
        7.5119075038        4.8259310225
        7.7432433882        5.2348385618
        7.9745792727        4.4542528798
        8.2059151571        4.6747504267
        8.4372510415        4.6841447368
        8.6685869259        5.4645881051
        8.8999228103        5.3813985816
        9.1312586947        6.5557183149
        9.3625945792        7.2828258856
        9.5939304636        4.2674771410
        9.8252663480        5.0727989966
       10.0566022324        4.5852198676
       10.2879381168        5.5846105726
       10.5192740013        4.0302556121
       10.7506098857        6.0693688012
       10.9819457701        4.4135606397
       11.2132816545        4.1791047834
       11.4446175389        6.2544609868
       11.6759534233        8.5453661384
       11.9072893078        4.9881656584
       12.1386251922        3.5556510680
       12.3699610766        2.9594329994
       12.6012969610        2.4225238103
       12.8326328454        6.6376916967
       13.0639687299        6.4827904592
       13.2953046143        4.7927024930
       13.5266404987        2.4077633424
       13.7579763831        2.4230934165
       13.9893122675        4.0882204659
       14.2206481519        1.9654207957
       14.4519840364        1.3529430678
       14.6833199208        1.2846767482
       14.9146558052        2.3673374135
       15.1459916896        2.3086310212
       15.3773275740        2.6100553310
       15.6086634585        2.3662105032
       15.8399993429        2.6265111108
       16.0713352273        1.6144491084
       16.3026711117        2.1675520468
       16.5340069961        3.0998538309
       16.7653428806        2.5012481639
       16.9966787650        2.2948704746
       17.2280146494        1.9431158371
       17.4593505338        0.3998004322
       17.6906864182        0.7010726106
       17.9220223026        1.5725619527
       18.1533581871        1.8315064647
       18.3846940715        1.9299294672
       18.6160299559        1.7386591169
       18.8473658403        1.9690625713
       19.0787017247        1.3947478079
       19.3100376092        1.9906375631
       19.5413734936        2.1642514113
       19.7727093780        1.2476647142
       20.0040452624        1.1439791867
       20.2353811468        3.5485270949
       20.4667170312        2.9501495696
       20.6980529157        2.1017258391
       20.9293888001        3.0786523471
       21.1607246845        2.7655553580
       21.3920605689        3.8630570437
       21.6233964533        3.1628347482
       21.8547323378        3.2220700962
       22.0860682222        1.2591319274
       22.3174041066        7.1940499223
       22.5487399910        6.9331302525
       22.7800758754        4.2456031403
       23.0114117598        1.4531438327
       23.2427476443        0.0000000000
       23.4740835287        0.0000000000
       23.7054194131        0.0000000000
       23.9367552975        0.0000000000
       24.1680911819        0.0000000000
       24.3994270664        0.0000000000
       24.6307629508        0.0000000000
       24.8620988352        0.0000000000
       25.0934347196        0.0000000000
       25.3247706040        0.0000000000
       25.5561064885        0.0000000000
       25.7874423729        0.0000000000
       26.0187782573        0.0000000000
       26.2501141417        0.0000000000
       26.4814500261        0.0000000000
       26.7127859105        0.0000000000
       26.9441217950        0.0000000000
       27.1754576794        0.0000000000
       27.4067935638        0.0000000000
       27.6381294482        0.0000000000
       27.8694653326        0.0000000000
       28.1008012171        0.0000000000
       28.3321371015        0.0000000000
       28.5634729859        0.0000000000
       28.7948088703        0.0000000000
       29.0261447547        1.3877107325
       29.2574806391        5.3181358419
       29.4888165236        2.9842871783
       29.7201524080        3.2447224095
       29.9514882924        3.1538034443
       30.1828241768        0.4720112359
       30.4141600612        3.3215189694
       30.6454959457        3.6742565235
       30.8768318301        0.9511544702
       31.1081677145        0.0279309609
       31.3395035989        5.9275550381
       31.5708394833        9.3322959609
       31.8021753677        4.1160808597
       32.0335112522        5.5918094341
       32.2648471366        2.5747925262
       32.4961830210        1.1605430132
       32.7275189054        0.6008018498
       32.9588547898        0.5371502943
       33.1901906743        0.6677064136
       33.4215265587        1.0076072739
       33.6528624431        1.5976122155
       33.8841983275        2.9869320785
       34.1155342119        6.4920979811
       34.3468700964        3.8950199799
       34.5782059808        2.9265026372
       34.8095418652        3.2371757406
       35.0408777496        4.0782952517
       35.2722136340        2.0000301319
       35.5035495184        1.2076706584
       35.7348854029        0.7499691328
       35.9662212873        0.5463866562
       36.1975571717        0.4201479214
       36.4288930561        0.3342424183
       36.6602289405        0.2641824835
       36.8915648250        0.2064196899
       37.1229007094        0.1576047614
       37.3542365938        0.1063206967
       37.5855724782        0.0440779243
       37.8169083626        0.0000000000
       38.0482442470        0.0000000000
       38.2795801315        0.0000000000
       38.5109160159        0.0000000000
       38.7422519003        0.0000000000
       38.9735877847        0.0000000000
       39.2049236691        0.0000000000
       39.4362595536        0.0000000000
       39.6675954380        0.0000000000
       39.8989313224        0.0000000000
       40.1302672068        0.0000000000
       40.3616030912        0.0000000000
       40.5929389756        0.0000000000
       40.8242748601        0.0000000000
       41.0556107445        0.0000000000
       41.2869466289        0.0000000000
       41.5182825133        0.0000000000
